# vtk DataFile Version 3.0
Surface Data
ASCII
DATASET POLYDATA

POINTS 1670 float
11.565037 -21.544128 0.487430
11.564751 -21.544024 1.493893
11.564203 -21.543785 2.500553
11.563425 -21.543470 3.507698
11.562460 -21.543081 4.515282
11.561375 -21.542580 5.522966
10.557405 -21.545013 -2.533329
10.557896 -21.545408 -1.526493
10.558098 -21.545757 -0.519937
10.558012 -21.545956 0.486389
10.557564 -21.545963 1.492712
10.556728 -21.545849 2.499348
10.555624 -21.545702 3.506521
10.554434 -21.545546 4.514177
10.553270 -21.545301 5.522041
10.552162 -21.544861 6.529795
9.549480 -21.546225 -3.540636
9.550259 -21.546307 -2.533558
9.550680 -21.546541 -1.526864
9.550829 -21.546873 -0.520627
9.550669 -21.547161 0.485425
9.550064 -21.547298 1.491671
9.548948 -21.547316 2.498344
9.547514 -21.547314 3.505489
9.546072 -21.547359 4.513042
9.544809 -21.547384 5.520895
9.543722 -21.547201 6.528864
9.542820 -21.546656 7.536781
8.541853 -21.547901 -3.541062
8.542595 -21.547617 -2.533804
8.543043 -21.547537 -1.527116
8.543215 -21.547693 -0.521063
8.542999 -21.547943 0.484835
8.540972 -21.548218 2.497753
8.539339 -21.548302 3.504801
8.537691 -21.548470 4.512131
8.536259 -21.548674 5.519857
8.535084 -21.548687 6.527933
8.534153 -21.548300 7.536083
7.533459 -21.549898 -3.541537
7.534140 -21.549253 -2.534174
7.534616 -21.548813 -1.527395
7.534809 -21.548656 -0.521252
7.531273 -21.548971 3.504511
7.529633 -21.549171 4.511658
7.528065 -21.549404 5.519278
7.526699 -21.549458 6.527390
7.525648 -21.549126 7.535576
7.525070 -21.548414 8.543625
6.525196 -21.551268 -2.534691
6.525604 -21.550535 -1.527834
6.525730 -21.550043 -0.521470
6.523056 -21.549809 3.504351
6.521570 -21.549919 4.511574
6.519993 -21.550005 5.519258
6.518593 -21.549911 6.527348
6.517550 -21.549515 7.535381
6.516993 -21.548828 8.543148
5.516207 -21.553625 -2.535366
5.516529 -21.552729 -1.528439
5.516541 -21.551941 -0.521842
5.514982 -21.550945 2.497034
5.513924 -21.550863 3.504215
5.512583 -21.550714 4.511732
5.511198 -21.550522 5.519493
5.510094 -21.550224 6.527422
5.509415 -21.549725 7.535198
5.509121 -21.549028 8.542671
5.509129 -21.548178 9.550131
4.507210 -21.555189 -1.529127
4.507160 -21.554178 -0.522217
4.505987 -21.552544 1.490454
4.504976 -21.552095 2.497101
4.503809 -21.551668 3.504417
4.502625 -21.551186 4.512003
4.501614 -21.550716 5.519579
4.500975 -21.550259 6.527136
4.500759 -21.549717 7.534611
4.500834 -21.549049 8.541965
4.501053 -21.548269 9.549345
3.497410 -21.557421 -1.529607
3.497255 -21.556320 -0.522388
3.494806 -21.552938 2.497934
3.493689 -21.552099 3.505039
3.492765 -21.551336 4.512251
3.492092 -21.550680 5.519390
3.491730 -21.550091 6.526539
3.491697 -21.549484 7.533758
3.491951 -21.548834 8.541054
3.492384 -21.548147 9.548447
2.487350 -21.558033 -0.522155
2.486805 -21.556620 0.485168
2.485106 -21.553755 2.498880
2.484207 -21.552620 3.505581
2.483467 -21.551687 4.512310
2.482935 -21.550886 5.519115
2.482635 -21.550123 6.526035
2.482626 -21.549351 7.533072
2.482927 -21.548613 8.540211
1.475151 -21.553579 3.505701
1.474358 -21.552525 4.512196
1.473787 -21.551579 5.518887
1.473566 -21.550640 6.525738
1.473753 -21.549698 7.532654
1.474293 -21.548841 8.539581
0.465506 -21.553719 4.512152
0.464874 -21.552620 5.518766
0.464790 -21.551563 6.525490
0.465281 -21.550564 7.532284
0.466171 -21.549707 8.539110
-0.543085 -21.553911 5.518864
-0.543076 -21.552776 6.525387
-0.542463 -21.551813 7.532061
-1.549833 -21.554432 6.525702
-1.549297 -21.553511 7.532307
11.563976 -20.536608 -1.527938
11.564489 -20.537037 -0.520980
11.564541 -20.537212 0.485723
11.564163 -20.537134 1.492182
11.563429 -20.536903 2.498718
11.562450 -20.536669 3.505718
11.561317 -20.536530 4.513254
10.555099 -20.537155 -3.542393
10.556232 -20.537619 -2.535576
10.557045 -20.538174 -1.528752
10.557505 -20.538645 -0.522057
10.557558 -20.538874 0.484399
10.557081 -20.538857 1.490723
10.556055 -20.538738 2.497217
10.554680 -20.538723 3.504198
10.553219 -20.538939 4.511765
10.551823 -20.539288 5.519770
10.550480 -20.539494 6.527889
9.546677 -20.538677 -4.549720
9.547987 -20.538664 -3.542855
9.548914 -20.538864 -2.535920
9.549530 -20.539253 -1.529235
9.549913 -20.539682 -0.522923
9.549946 -20.539972 0.483202
9.549393 -20.540070 1.489433
9.548141 -20.540112 2.495975
9.546398 -20.540319 3.502941
9.544569 -20.540834 4.510378
9.542969 -20.541542 5.518351
9.541588 -20.542067 6.526699
9.540390 -20.542019 7.535149
8.539167 -20.540779 -4.550487
8.540241 -20.540401 -3.543248
8.540995 -20.540155 -2.536011
8.541555 -20.540190 -1.529370
8.541916 -20.540430 -0.523359
8.537956 -20.541433 3.502153
8.535870 -20.542120 4.509371
8.533981 -20.542984 5.517151
8.532400 -20.543629 6.525572
8.531109 -20.543657 7.534266
8.530285 -20.542982 8.542885
7.530819 -20.543253 -4.551012
7.531633 -20.542465 -3.543445
7.532280 -20.541740 -2.536061
7.532869 -20.541357 -1.529443
7.531450 -20.541855 2.494993
7.529707 -20.542334 3.501833
7.527636 -20.543028 4.508888
7.525545 -20.543797 5.516548
7.523687 -20.544304 6.524973
7.522215 -20.544273 7.533653
7.521362 -20.543661 8.542154
6.521858 -20.545864 -4.550989
6.522577 -20.544754 -3.543413
6.523212 -20.543671 -2.536240
6.523758 -20.542950 -1.529711
6.523535 -20.542614 1.488182
6.522680 -20.542919 2.494658
6.521303 -20.543367 3.501600
6.519402 -20.543871 4.508852
6.517294 -20.544304 5.516645
6.515394 -20.544502 6.525053
6.513981 -20.544317 7.533514
6.513197 -20.543732 8.541632
6.513067 -20.542820 9.549639
5.513494 -20.547319 -3.543635
5.514191 -20.546083 -2.536750
5.514647 -20.545122 -1.530209
5.513891 -20.544027 1.487726
5.512970 -20.544209 2.494129
5.511623 -20.544434 3.501377
5.509869 -20.544561 4.509079
5.508026 -20.544567 5.517044
5.506556 -20.544422 6.525272
5.505659 -20.544071 7.533403
5.505274 -20.543491 8.541159
5.505281 -20.542692 9.548830
4.504684 -20.548885 -2.537675
4.505047 -20.547771 -1.530901
4.505049 -20.546789 -0.524137
4.503645 -20.545483 1.488049
4.502308 -20.545259 2.494444
4.500748 -20.545105 3.501760
4.499187 -20.544861 4.509501
4.497856 -20.544533 5.517260
4.496992 -20.544125 6.525066
4.496662 -20.543619 7.532825
4.496748 -20.543013 8.540407
4.497047 -20.542318 9.547956
4.497496 -20.541498 10.555670
3.494690 -20.550425 -1.531466
3.494581 -20.549223 -0.524135
3.493042 -20.546867 1.489429
3.491590 -20.546047 2.495918
3.490084 -20.545443 3.502815
3.488823 -20.544931 4.509953
3.487907 -20.544422 5.517168
3.487375 -20.543833 6.524525
3.487265 -20.543146 7.531979
3.487524 -20.542437 8.539434
3.488062 -20.541773 9.546915
3.488811 -20.541134 10.554512
3.489733 -20.540440 11.562204
2.484104 -20.551434 -0.523782
2.483532 -20.549906 0.483843
2.481443 -20.546951 2.497419
2.480192 -20.545927 3.503765
2.479084 -20.545179 4.510208
2.478252 -20.544535 5.516956
2.477806 -20.543831 6.524052
2.477797 -20.542999 7.531315
2.478203 -20.542143 8.538559
2.478960 -20.541397 9.545795
2.480000 -20.540825 10.553150
2.481251 -20.540369 11.560759
2.482595 -20.539919 12.568619
1.473789 -20.551561 0.484586
1.470726 -20.546762 3.504120
1.469477 -20.545753 4.510279
1.468493 -20.544943 5.516790
1.468094 -20.544165 6.523661
1.468388 -20.543306 7.530701
1.469236 -20.542400 8.537748
1.470406 -20.541580 9.544762
1.471722 -20.540983 10.551935
1.473135 -20.540627 11.559496
1.474621 -20.540398 12.567490
0.460392 -20.546629 4.510374
0.459343 -20.545599 5.516768
0.459015 -20.544689 6.523310
0.459572 -20.543835 7.530016
0.460823 -20.543028 8.536928
0.462368 -20.542315 9.544004
0.463915 -20.541771 10.551281
0.465399 -20.541451 11.558897
0.466942 -20.541302 12.566891
-0.547546 -20.547865 4.510748
-0.548409 -20.546602 5.517078
-0.548611 -20.545494 6.523346
-0.548010 -20.544580 7.529753
-0.546747 -20.543898 8.536537
-0.545179 -20.543406 9.543774
-0.543600 -20.543041 10.551315
-0.542046 -20.542799 11.559015
-0.540388 -20.542704 12.566860
-1.554811 -20.548162 5.517765
-1.554867 -20.546909 6.523952
-1.554348 -20.545931 7.530230
-1.553333 -20.545303 8.536934
-1.552008 -20.544966 9.544226
-1.550529 -20.544754 10.551882
-2.560392 -20.550406 5.518696
12.569717 -19.528124 1.491993
11.562813 -19.528872 -1.530130
11.563652 -19.529524 -0.523123
11.563873 -19.529970 0.483768
11.563484 -19.530144 1.490379
11.562641 -19.530121 2.496920
10.553204 -19.529137 -3.544351
10.554583 -19.529594 -2.537910
10.555748 -19.530264 -1.531290
10.556570 -19.530912 -0.524510
10.556858 -19.531355 0.482187
10.556448 -19.531569 1.488657
10.555349 -19.531710 2.495071
10.553778 -19.532019 3.501801
10.552061 -19.532681 4.509148
10.550415 -19.533630 5.517195
10.548855 -19.534492 6.525698
9.544718 -19.530758 -4.551448
9.546062 -19.530661 -3.544931
9.547134 -19.530890 -2.538440
9.548002 -19.531395 -1.532021
9.548647 -19.531954 -0.525625
9.548925 -19.532364 0.480745
9.548548 -19.532623 1.487091
9.547306 -19.532934 2.493532
9.545338 -19.533581 3.500256
9.543114 -19.534710 4.507502
9.541086 -19.536160 5.515528
9.539335 -19.537401 6.524292
8.537258 -19.533049 -4.552399
8.538296 -19.532610 -3.545405
8.539068 -19.532444 -2.538575
8.539742 -19.532606 -1.532243
8.536564 -19.534828 3.499350
8.534025 -19.536201 4.506443
8.531588 -19.537809 5.514271
8.529484 -19.539074 6.523077
8.527763 -19.539480 7.532375
8.526611 -19.538944 8.541580
7.527647 -19.536501 -5.560174
7.528765 -19.535780 -4.552957
7.529457 -19.534945 -3.545449
7.530083 -19.534321 -2.538438
7.531017 -19.534485 1.485579
7.529879 -19.535011 2.492136
7.527979 -19.535954 3.498976
7.525484 -19.537283 4.506029
7.522806 -19.538666 5.513777
7.520378 -19.539619 6.522539
7.518442 -19.539843 7.531755
7.517290 -19.539322 8.540728
7.517061 -19.538225 9.549477
6.518612 -19.539497 -5.560216
6.519503 -19.538565 -4.552522
6.520155 -19.537365 -3.544856
6.520803 -19.536360 -2.538103
6.521631 -19.535688 1.485165
6.520760 -19.536213 2.491648
6.519199 -19.537056 3.498703
6.516903 -19.538069 4.506109
6.514248 -19.538954 5.514082
6.511843 -19.539450 6.522808
6.510063 -19.539461 7.531700
6.509081 -19.538994 8.540195
6.508896 -19.538105 9.548489
5.509233 -19.542383 -5.559740
5.510130 -19.541403 -4.551979
5.511015 -19.540047 -3.544519
[...]
POINT_DATA 1670
SCALARS weights float 1
LOOKUP_TABLE default
1.023506641
1.024387598
1.025948882
1.027293801
1.027320385
1.025970340
1.023894548
1.023921371
1.023845315
1.024155974
1.025255203
1.026963830
1.028348327
1.028368711
1.026899099
1.024945974
1.024494648
1.024664402
1.024087071
1.023567080
1.023825407
1.024918437
1.026341915
1.027386785
1.027565002
1.026790142
1.025470257
1.024353147
1.026084185
1.026018739
1.024746776
1.023635268
1.023524761
1.024849057
1.025220633
1.025432229
1.025531411
1.025257230
1.024733067
1.027620077
1.027546525
1.026117682
1.024665356
1.023434281
1.023563981
1.024136901
1.024419427
1.024169445
1.023992419
1.028168559
1.027039051
1.025516868
1.023409605
1.023573756
1.024088144
1.024137855
1.023518085
1.023141742
1.028167486
1.027535915
1.026022911
1.024570465
1.024929404
1.025030136
1.025036812
1.024603367
1.023664713
1.023032784
1.023161769
1.028305054
1.027182341
1.025027752
1.025506258
1.025833845
1.025498390
1.025020599
1.024616361
1.024162531
1.023850441
1.023833513
1.028291702
1.028123617
1.025451779
1.025071740
1.024389505
1.023919821
1.023936749
1.024231672
1.024519444
1.024579763
1.027256608
1.026681066
1.024632454
1.023990035
1.023577094
1.023456097
1.023590565
1.023887277
1.024193883
1.023631096
1.023699403
1.023802876
1.023739219
1.023556232
1.023411870
1.023701549
1.023713827
1.023614645
1.023417115
1.023193359
1.022954345
1.023036957
1.023300886
1.022399187
1.022974968
1.023727179
1.023599863
1.023396969
1.023853421
1.025277138
1.026909947
1.027487755
1.023631573
1.024332285
1.024701834
1.024645805
1.024525166
1.024981260
1.026270866
1.027799249
1.028491259
1.027729392
1.026051283
1.023621321
1.024632931
1.025063872
1.024688005
1.024209857
1.024202585
1.024775743
1.025726318
1.026712060
1.027415037
1.027485609
1.026787281
1.025780916
1.025338531
1.026633978
1.026295900
1.024761438
1.023582458
1.024350166
1.024757385
1.025560737
1.026102304
1.025981188
1.025578976
1.027610898
1.028708458
1.027690172
1.025640607
1.022994518
1.022519350
1.022598386
1.023616433
1.024590611
1.024720192
1.024582982
1.029057145
1.029553413
1.028309584
1.026524544
1.023493052
1.023359776
1.023101330
1.023129344
1.023811817
1.024227023
1.023712516
1.023203135
1.023438334
1.029626369
1.029057026
1.027957320
1.024370313
1.025048018
1.025526524
1.025413394
1.025288701
1.024942517
1.023971319
1.023114204
1.023097992
1.030295372
1.030519724
1.029142380
1.025794983
1.026199460
1.026465535
1.025831461
1.025143504
1.024784803
1.024381042
1.023985982
1.023895264
1.023962617
1.031675816
1.031498313
1.026963472
1.025799274
1.024992466
1.024130225
1.023697734
1.023803830
1.024053097
1.024236441
1.024345279
1.024330854
1.024177074
1.030787945
1.029395342
1.024686813
1.023495317
1.023138046
1.023341298
1.023585796
1.023579955
1.023475170
1.023509979
1.023750305
1.024067283
1.024191856
1.027194977
1.023136258
1.023216367
1.023571134
1.023656249
1.023315191
1.022833586
1.022675753
1.023124695
1.023922563
1.024380922
1.023184061
1.023052931
1.022925019
1.022872806
1.022897363
1.023080587
1.023569822
1.024208546
1.024458408
1.022770762
1.022182941
1.021927118
1.022313833
1.023166180
1.023980856
1.024353743
1.024300575
1.024013042
1.021541715
1.021314263
1.021900892
1.023133993
1.024196982
1.024292588
1.021365762
1.022324324
1.024145603
1.023977637
1.023418427
1.023261070
1.024085879
1.023716450
1.024629951
1.025415897
1.025533915
1.024908423
1.024326444
1.024633884
1.025854349
1.027212024
1.027698278
1.027009964
1.023656845
1.024581432
1.025171399
1.025350451
1.025262237
1.024886250
1.024445772
1.024378896
1.024957895
1.026166439
1.027481794
1.028031230
1.025808811
1.026729107
1.026148796
1.024955153
1.023211837
1.023766041
1.025391102
1.027032971
1.027497649
1.026993036
1.026619673
1.028740525
1.028833508
1.026922584
1.023081899
1.022685885
1.022068262
1.022091150
1.023462296
1.025078773
1.025525570
1.025248647
1.025103927
1.028692245
1.030437469
1.029170990
1.026458621
1.023148656
1.023400307
1.023387671
1.023370862
1.024031878
1.024593592
1.024091363
1.023368478
1.023459435
1.028946519
1.030405641
1.029088974
1.026834249
1.025490046
1.023851395
1.025138974
1.026139617
1.026065707
1.025689840
1.025182247
1.024131775
1.023162007
1.023085713
1.023569107
1.023818374
1.029464841
1.029133677
1.028877258
1.025151968
1.025918245
1.026650071
1.026240587
1.025463462
1.024906754
1.024332881
1.023868203
1.023871064
1.024150610
1.024233818
1.028556108
1.030201435
1.031731963
1.031547904
1.026576400
1.025322556
1.024806023
1.024440885
1.024358869
1.024415374
1.024248481
1.024003386
1.024033189
1.024320602
1.024592042
1.031561613
1.032657743
1.030678630
1.024491191
1.023244381
1.023247480
1.023932219
1.024438262
1.024227738
1.023558378
1.023108006
1.023319006
1.024074078
1.024738193
1.024689913
1.030633211
1.029387474
1.023990154
1.022743702
1.022567630
1.022925019
1.023324013
1.023407817
1.023057461
1.022575140
1.022605419
1.023425341
1.024365425
1.022343040
1.021837950
1.021623611
1.021913767
1.022507548
1.022943735
1.023159146
1.023516059
1.023944020
1.021459341
1.020698667
1.020829797
1.021995664
1.023357034
1.023886204
1.023649812
1.020475626
1.020469546
1.021719456
1.023333073
1.023826241
1.023169160
1.020715952
1.020711660
1.022933006
1.023175001
1.022799730
1.023791552
1.023472071
1.023791432
1.023233771
1.023772240
1.024693727
1.025245428
1.024752855
1.023782253
1.023526430
1.024534345
1.026397467
1.028025627
1.028484464
1.023289204
1.023410559
1.023620248
1.024285078
1.024948120
1.024772644
1.023912907
1.023322821
1.023752570
1.025473475
1.030006051
1.030261755
1.025336981
1.025352955
1.024604082
1.022681355
1.023430109
1.025892973
1.028672457
1.029678702
1.028926253
1.026920080
1.028320432
1.027487278
1.025564671
1.023525476
1.023025990
1.022265196
1.022241116
1.023918271
1.026033044
1.026639462
1.026112795
1.025768399
1.028858423
1.029649734
1.027274370
1.023309231
1.023734212
1.023839235
1.023795605
1.024363518
1.024867535
1.024327636
1.023569465
1.023716688
1.024324894
1.028756976
1.029295206
1.026750565
1.023855925
1.023220658
1.024753928
1.026076555
1.026197791
1.025665164
1.024860144
1.023756266
1.023044229
1.023315907
1.024000764
1.027099133
1.028363347
1.027749538
1.026293039
1.025494933
1.023794293
1.024865389
1.026101589
1.026301503
1.025690198
1.024816632
1.023970604
1.023635030
1.024032593
1.024631977
1.024767876
1.026705503
1.027917743
1.028612137
1.029025078
1.028600335
1.024405360
1.024574876
1.024989009
1.025279045
1.025130987
1.024533629
1.024022341
1.024067879
1.024545193
1.025017500
1.025126457
1.029191136
1.031119466
1.031421423
1.029450893
1.024161100
1.023245692
1.023371816
1.023945808
1.024348378
1.024208903
1.023624301
1.023086905
1.023152828
1.023959756
1.024894357
1.025048614
1.031261086
1.031699896
1.029827595
1.022629023
1.021932840
1.021702647
1.021866441
1.022276163
1.022510767
1.022301435
1.022117496
1.022701263
1.023818612
1.021915317
1.021056414
1.020551920
1.020736575
1.021503568
1.022157431
1.022294879
1.022428274
1.022949576
1.020524502
1.020077944
1.020752072
1.021987200
1.022617340
1.022505999
1.022428036
1.019934773
1.022491574
1.022276282
1.020323992
1.022250772
1.022014976
1.023534298
1.024116158
1.024308324
1.024460912
1.024308205
1.024296045
1.022834659
1.023447633
1.024251223
1.024303436
1.023665547
1.023410559
1.024400949
1.026604295
1.029120564
1.030781984
1.022185683
1.021762252
1.022426128
1.023597002
1.024019122
1.023136973
1.025903463
1.029525876
1.032946944
1.034224391
1.024120331
1.023412108
1.022721052
1.022942901
1.022974491
1.023906946
1.027093053
1.030886412
1.032482266
1.031694531
1.030142546
1.025988460
1.026409626
1.025466084
1.024439335
1.023827672
1.022820234
1.022662282
1.024509788
1.026934505
1.027731657
1.027267814
1.027026653
1.026976943
1.027409315
1.027350068
1.025407195
1.024187922
1.024346352
1.024056554
1.023744822
1.024151921
1.024577618
1.024222493
1.023913383
1.024512291
1.025337815
1.025384188
1.027194858
1.027137280
1.025073528
1.023499727
1.024525166
1.025367141
1.025422573
1.024920344
1.024074554
1.023235559
1.023180366
1.024036169
1.024842262
1.024795175
1.025868893
1.026892662
1.026582122
1.024105310
1.025210381
1.025789738
1.025523782
1.024638414
1.023847342
1.023882627
1.024630189
1.025201678
1.025041580
1.024418354
1.023795485
1.024215698
1.025724888
1.027370095
1.027662516
1.023844719
1.024373412
1.025128365
1.025455713
1.025074959
1.024420261
1.024136662
1.024358392
1.024725556
1.024943948
1.024918675
1.024534702
1.024473906
1.027023554
1.029138207
1.029423475
1.028408766
1.023965955
1.023437738
1.023327708
1.023232102
1.023044109
1.022900701
1.022851229
1.022838712
1.023013830
1.023635983
1.024445891
1.024688721
1.029963017
1.030789256
1.029703021
1.027853727
1.022983909
1.022011280
1.021210432
1.020798445
1.020958066
1.021439195
1.021732926
1.021833301
1.022325277
1.023282170
1.029486418
1.028236508
1.026691437
1.020896316
1.020691752
1.021098852
1.021674395
1.021924019
1.022077560
1.022526741
1.020823121
1.021509290
1.022184253
1.022244811
1.020488262
1.021146655
1.020653248
1.023754716
1.024241328
1.023895383
1.024032712
1.024068832
1.024069548
1.023008347
1.023290038
1.023265481
1.023457646
1.024768710
1.030846000
1.033810139
1.036337733
1.035167098
1.022205114
1.021359205
1.021440864
1.022317886
1.024656773
1.027373195
1.031859398
1.036491752
1.039076805
1.039039135
1.036898017
1.033348083
1.023220539
1.022468328
1.022055387
1.022456765
1.024013042
1.025310040
1.029008031
1.033340096
1.035483479
1.035192966
1.033810258
1.031854391
1.029433131
1.024592280
1.024362087
1.023972988
1.024096847
1.023697853
1.023652077
1.025545955
1.027897596
1.028828025
1.028834939
1.029078722
1.029243708
1.028505683
1.025673866
1.025197148
1.024418831
1.024959207
1.024314642
1.023869753
1.024175882
1.024512291
1.024467349
1.024856687
1.026013851
1.026982784
1.026873350
1.025966167
1.025713444
1.024868250
1.024663925
1.024760008
1.024692893
1.024452925
1.023938656
1.023660779
1.024274707
1.025386691
1.025901556
1.025443912
1.025277376
1.026185870
1.024060011
1.024564385
1.025144577
1.025311112
1.024937391
1.024705529
1.025141954
1.025724649
1.025614023
1.023643970
1.025211215
1.027486444
1.024272084
1.024805784
1.025037408
1.024801731
1.024588823
1.024740815
1.024912834
1.024708509
1.022636771
1.023878574
1.027105570
1.028880358
1.023810863
1.023397684
1.022845387
1.022343516
1.022260904
1.022595406
1.022915602
1.024201393
1.027164102
1.029254913
1.028435111
1.026520729
1.021962166
1.021299005
1.021173120
1.021549225
1.021984935
1.028265119
1.027196884
1.025531888
1.023747444
1.022709131
1.022585630
1.023675442
1.022544861
1.022221804
1.022413969
1.022748947
1.023829818
1.034448385
1.035266876
1.022310972
1.021651626
1.021846414
1.025204062
1.028860092
1.033389449
1.037648201
1.041230559
1.043614149
1.043031812
1.038610816
1.021105170
1.021326542
1.026037812
1.029704332
1.035059333
1.040428519
1.044107199
1.045475960
1.043888450
1.039240360
1.033406138
1.022812247
1.022300363
1.022076368
1.022274017
1.025496602
1.027772427
1.031998754
1.036232352
1.038486242
1.038955212
1.038212538
1.036045790
1.032680392
1.029159904
1.023100019
1.023233771
1.024051189
1.024983048
1.025884986
1.028051376
1.029907465
1.030548811
1.030984998
1.031820655
1.032186747
1.031149387
1.028910875
1.024665713
1.024124503
1.024298429
1.025039554
1.025263071
1.025836706
1.025972843
1.025932074
1.026706457
1.028157949
1.029101491
1.028738141
1.027302027
1.025498629
1.025194764
1.024739861
1.024983048
1.025233984
1.025155902
1.025330901
1.026226282
1.027133584
1.027129650
1.026261926
1.025174618
1.025137782
1.025660157
1.024269581
1.024748802
1.025327206
1.025712490
1.026222110
1.026878595
1.026933789
1.025988460
1.024713635
1.023836493
1.024901867
1.024253130
1.024516582
1.024841189
1.025338292
1.025795698
1.025621414
1.024733901
1.023841500
1.023474932
1.024450302
1.027423501
1.028535724
1.023537397
1.023042798
1.022814870
1.023024917
1.023459315
1.023619533
1.023393512
1.025252342
1.027585864
1.028502345
1.026995301
1.026890278
1.025508881
1.024859548
1.023484588
1.023184419
1.023341656
1.021788001
1.021275520
1.021616578
1.022768855
1.021940708
1.021448970
1.021667242
1.022051454
1.023400068
1.026357412
1.036453009
1.039796114
1.041169286
1.038344026
1.022403240
1.021554947
1.021878123
1.030695558
1.036671400
1.042201638
1.047013521
1.050788760
1.050903797
1.045351148
1.036942720
1.021293521
1.021364689
1.032185078
1.038601995
1.044415355
1.048571348
1.051017642
1.050292730
1.045090437
1.037445068
1.022425890
1.022144318
1.022100568
1.030615091
1.035674572
1.039571881
1.041438699
1.042368412
1.042344928
1.040155053
1.035816908
1.030980825
1.023012638
1.023292065
1.024014831
1.026431799
1.029064178
1.032029748
1.033342957
1.033271074
1.033689380
1.034833431
1.035174131
1.033517003
1.030322552
1.024650335
1.024415255
1.025045395
1.025918603
1.026247382
1.027880311
1.029184461
1.029070139
1.028553128
1.029137015
1.030527234
1.031270266
1.030414581
1.025292039
1.025169492
1.025916576
1.025298834
1.026187420
1.026932716
1.027023196
1.027165055
1.027893662
1.028544784
1.028299570
1.027161598
1.024370551
1.024422169
1.024623036
1.025294900
1.026022315
1.026836276
1.027479291
1.027319670
1.026244521
1.024928093
1.023741841
1.024100184
1.023979068
1.024617076
1.025455236
1.025966644
1.025671244
1.024717808
1.025134563
1.026006579
1.028077126
1.026827931
1.028216839
1.029636025
1.029361010
1.028531551
1.027799129
1.025194168
1.024614692
1.024021268
1.021596789
1.021931410
1.022375107
1.023063660
1.024458647
1.026178241
1.030585408
1.022888184
1.022897005
1.023100257
1.023041725
1.024034023
1.027297139
1.032099605
1.036785126
1.040958524
1.044621706
1.045732379
1.042013407
1.023107171
1.023109078
1.032025576
1.039242983
1.046204329
1.051923156
1.056075811
1.056217551
1.050024509
1.040145636
1.022122979
1.022731185
1.033310533
1.040650368
1.047191143
1.051714540
1.054515481
1.054241776
1.048983097
1.040309548
1.022508979
1.022390842
1.032099485
1.038063765
1.042191863
1.043939114
1.044953585
1.045201302
1.042893887
1.037680745
1.023971438
1.024091840
1.024134398
1.031310439
1.035353184
1.036816239
1.036376119
1.036487937
1.037405133
1.037219524
1.034572363
1.025663972
1.026200652
1.026241064
1.029990315
1.032184124
1.032207251
1.031299233
1.031412244
1.032418609
1.032675624
1.025327921
1.025677562
1.026564002
1.027184129
1.028183222
1.028233647
1.028057098
1.028418541
1.028955698
1.028781414
1.023467183
1.023547649
1.024958134
1.025403023
1.025913358
1.026352286
1.026418805
1.025931001
1.023185134
1.023394108
1.024780035
1.024702311
1.024315834
1.025831580
1.026949167
1.030085087
1.030942440
1.029433012
1.028819442
1.026036382
1.025479794
1.025115132
1.022869468
1.024962425
1.025080562
1.024678707
1.022365332
1.022646785
1.022953629
1.023505449
1.024736166
1.026516676
1.028417945
1.031982660
1.032680631
1.024650693
1.032703400
1.038609028
1.043787122
1.047155142
1.047112942
1.042519808
1.023617625
1.024630547
1.026452184
1.039026499
1.047430277
1.054370165
1.058269024
1.057392597
1.050634861
1.040566683
1.023240805
1.024457693
1.032153130
1.039592028
1.047330618
1.053005695
1.055857778
1.055053711
1.049489260
1.040598989
1.023289919
1.023368835
1.024263382
1.031194925
1.037413001
1.042578936
1.045310855
1.046464324
1.046224356
1.043254018
1.037392497
1.024875641
1.024258852
1.023993015
1.031022787
1.035573959
1.038049698
1.038361430
1.038417578
1.038638711
1.037424207
1.026845098
1.026777029
1.025682807
1.032512069
1.033252001
1.032731533
1.032629013
1.033063889
1.032595634
1.026956201
1.027329564
1.027867675
1.027985811
1.028395057
1.028260112
1.024180293
1.024875283
1.025094748
1.023728013
1.024398088
1.027076483
1.028183937
1.029327989
1.029260635
1.027279973
1.027105570
1.025183082
1.025203466
1.025624394
1.022106051
1.023031473
1.023735523
1.023813128
1.023721814
1.022659898
1.022871852
1.024620891
1.025346398
1.036868215
1.042647958
1.045516372
1.044151306
1.039153337
1.026523232
1.027441621
1.035865068
1.044732571
1.052742720
1.056160927
1.053652048
1.046386600
1.037428260
1.024534464
1.025659084
1.026746988
1.036219597
1.044695616
1.051808834
1.054553032
1.052276254
1.045902848
1.037623525
1.024424791
1.025092125
1.025816441
1.040457487
1.044668913
1.046030402
1.044646025
1.040609479
1.025152802
1.024561524
1.024625540
1.036136389
1.037729979
1.038064599
1.037459493
1.035266876
1.026592374
1.024948001
1.031863809
1.031818867
1.030817747
1.028432131
1.028176308
1.027214050
1.027020574
1.025923491
1.027616143
1.025033236
1.026255131
1.026762605
1.027301192
1.027967691
1.026277661
1.024847627
1.024840832
1.024467945
1.024331927
1.037411094
1.039394259
1.037406445
1.033167958
1.039035320
1.046277761
1.048645735
1.045066833
1.038436413
1.026522636
1.026121616
1.039847374
1.046743035
1.048697233
1.045104384
1.038723588
1.025672674
1.027210355
1.027557611
1.026243806
1.040823340
1.041877747
1.039489746
1.035160542
1.025262117
1.025450110
1.026254177
1.033462644
1.026834607
1.026174426
1.025080085
1.027282953
1.028589010
1.028275728
1.026309490
1.028473258
1.025125861
1.026263952
1.028385401
1.025831938
1.025775909
1.030604601
1.030583262
1.027436733
1.024578571
1.030310512
1.027829409
1.024687529
1.032289267
1.036695957
1.037650466
1.027119756
1.025854468
1.037848473
1.038544893
1.026031017
1.028192282
1.028605461
1.026672482
1.025378823
1.026264668
1.027637720
1.027462482
1.026349187
1.026016951
1.025954723
1.027564526
1.027497888
1.025610209
1.027165174
1.024868727
1.025096655
1.027855992
1.025471449
1.024615884
1.031068802
1.027597547
1.024513245
1.028027296
1.025437713
1.026664972
1.024790883
1.026744366
1.027695537
1.025379062
1.026074529
1.027222276
1.026453018
1.026472092
1.026936173
1.026997924
1.025937557
1.026221037
1.025546074
1.031423092
1.030334592
1.026960969
1.024978876
1.033053994
1.032322049
1.028281689
1.025129676
1.030196309
1.030222535
1.027667284
1.023099542
1.024180412
1.025404215
1.025345206
1.025377512
1.025686264
1.026851535
1.027279377
1.027659774
1.026845932
1.026988864
1.026002526
1.026653409
1.025404930
1.035197735
1.033141136
1.028436542
1.025633454
1.033158898
1.036273718
1.033903837
1.028738856
1.025450945
1.027670503
1.031298637
1.032942295
1.026299596
1.028149128
1.024549246
1.022343516
1.022732496
1.023790121
1.025136948
1.024860978
1.024556160
1.026693344
1.027529120
1.027848959
1.026823044
1.026399612
1.026665330
1.025412679
1.024546981
1.026658297
1.024631739
1.036282063
1.033552527
1.028533816
1.025658250
1.035004258
1.037029743
1.033429384
1.028210759
1.033948064
1.034272075
1.028689504
1.031150341
1.030528307
1.022301912
1.022491217
1.024606586
1.024268270
1.026059389
1.027028441
1.027191162
1.025765538
1.026078105
1.024872661
1.023757100
1.026291132
1.024217486
1.033912897
1.031688452
1.027871966
1.025603533
1.032922626
1.033807993
1.030697227
1.032326937
1.031756639
1.030560136
1.022398233
1.022436261
1.024385095
1.023752570
1.022948623
1.025884986
1.026661396
1.026281953
1.025629163
1.025791168
1.024916887
1.023759127
1.026296139
1.024503231
1.030688643
1.029594421
1.027405620
1.029139996
1.029544950
1.028307319
1.023235798
1.022903800
1.025513053
1.024640203
1.023216248
1.027407169
1.026451111
1.026127577
1.026041269
1.025253534
1.024038553
1.026314735
1.024831891
1.028380990
1.028098226
1.027006626
1.026440263
1.026790261
1.025838733
1.025309205
1.028246522
1.028073788
1.026183009
1.029486060
1.028617620
1.027079344
1.026916265
1.025627017
1.024322391
1.025958061
1.026864290
1.026819587
1.030096173
1.033518910
1.032086968
1.032317638
1.032630563
1.028661370
1.027621150
1.026346087
1.025146842
1.026193142
1.025601983
1.025597572
1.025575995
1.035524845
1.032631874
1.038545370
1.038854718
1.033975005
1.034621358
1.036923409
1.029658198
1.030811191
1.026926756
1.027300119
1.025671721
1.025588036
1.024652958
1.024739146
1.038128853
1.035663128
1.033294439
1.039986014
1.042194724
1.037502289
1.029830098
1.034687757
1.038462281
1.029606104
1.031536698
1.026592016
1.027504563
1.027478218
1.025230646
1.025586247
1.024579167
1.035460591